 &FCI NORB=  28,NELEC=14,MS2=0,
  ORBSYM=1,1,1,1,1,1,1,1,1,1,1,1,1,1,1,1,1,1,1,1,1,1,1,1,1,1,1,1,
  ISYM=1,
 &END
 2.301562187463437    1    1    1    1
 -6.662953175307074e-12    1    1    2    1
 2.302364212822039    1    1    2    2
 -0.1976030307914653    1    1    3    1
 3.983330050354172e-13    1    1    3    2
 0.8360910022541377    1    1    3    3
 -9.814140907555505e-13    1    1    4    1
 0.1841855384987192    1    1    4    2
 6.103405541385554e-13    1    1    4    3
 0.6636169088606613    1    1    4    4
 -0.07186698730907497    1    1    5    1
 7.11163170453305e-14    1    1    5    2
 -0.09779468924293853    1    1    5    3
 9.184567169306934e-13    1    1    5    4
 0.6918056480702409    1    1    5    5
 0.6841211029233183    1    1    6    6
 0.6841211029233166    1    1    7    7
 2.377505744360908e-13    1    1    8    6
 -8.24019671941123e-13    1    1    8    7
 0.6135170092522957    1    1    8    8
 -8.234832087061772e-13    1    1    9    6
 -2.380439595439654e-13    1    1    9    7
 1.011777467363473e-15    1    1    9    8
 0.6135170092522958    1    1    9    9
 6.296948639600286e-13    1    1   10    1
 -0.1131225651098558    1    1   10    2
 -4.596644245791204e-13    1    1   10    3
 -0.1345638542085953    1    1   10    4
 0.4088756545817133    1    1   10   10
 0.01003832414891358    1    1   11    1
 -5.728452651468374e-14    1    1   11    2
 -0.1010240966012263    1    1   11    3
 1.146543797403421e-13    1    1   11    4
 0.1623443727077206    1    1   11    5
 -1.01112017457865e-15    1    1   11    6
 1.152326103805662e-15    1    1   11    7
 -1.721834480550299e-13    1    1   11   10
 0.4821892904473987    1    1   11   11
 1.79884024832201e-15    1    1   12    5
 0.2332232492035777    1    1   12    6
 -0.02674805921886563    1    1   12    7
 1.960769871120482e-13    1    1   12    8
 -4.708964338254185e-13    1    1   12    9
 0.5778675811513021    1    1   12   12
 -1.377021715514541e-15    1    1   13    5
 0.02674805921886578    1    1   13    6
 0.2332232492035769    1    1   13    7
 -4.72292560962928e-13    1    1   13    8
 -1.978122526891113e-13    1    1   13    9
 0.5778675811512993    1    1   13   13
 -0.1597797412241903    1    1   14    1
 2.600293569875178e-13    1    1   14    2
 0.1350548260893805    1    1   14    3
 6.487367067153915e-13    1    1   14    4
 0.157583909814889    1    1   14    5
 -1.235719266680333e-15    1    1   14    6
 1.085652365490003e-15    1    1   14    7
 -3.601736964231605e-13    1    1   14   10
 -0.008370269662590406    1    1   14   11
 0.5640946989916497    1    1   14   14
 6.170629870787259e-13    1    1   15    6
 3.793140931560024e-13    1    1   15    7
 -0.07072057367494307    1    1   15    8
 -0.25385975088929    1    1   15    9
 6.787525728101096e-13    1    1   15   12
 5.342833380578282e-13    1    1   15   13
 0.6248428626949536    1    1   15   15
 3.814281789721319e-13    1    1   16    6
 -6.163591772384569e-13    1    1   16    7
 0.2538597508892901    1    1   16    8
 -0.07072057367494275    1    1   16    9
 5.346192238908642e-13    1    1   16   12
 -6.785693968530682e-13    1    1   16   13
 1.184924554309408e-15    1    1   16   15
 0.6248428626949549    1    1   16   16
 -1.581337328877136e-14    1    1   17    1
 -0.008181800438201301    1    1   17    2
 4.48021827970102e-13    1    1   17    3
 -0.1176369942517493    1    1   17    4
 -8.834027259707611e-13    1    1   17    5
 -0.0854978615416454    1    1   17   10
 -4.501087003117021e-13    1    1   17   11
 -5.974283567855565e-13    1    1   17   14
 0.7434635512792348    1    1   17   17
 9.278325788339599e-13    1    1   18    1
 -0.1644279208481239    1    1   18    2
 -7.103827075194413e-13    1    1   18    3
 -0.13532753184469    1    1   18    4
 1.21994862128938e-13    1    1   18    5
 0.1659916667530774    1    1   18   10
 1.869737004112082e-13    1    1   18   11
 -4.481042273352109e-13    1    1   18   14
 -0.1383200278870683    1    1   18   17
 0.599375111412136    1    1   18   18
 2.52472738895837e-15    1    1   19    2
 2.126770981547565e-15    1    1   19    4
 -2.380040609040179e-15    1    1   19   10
 -1.986393104624676e-15    1    1   19   12
 2.012279232133096e-15    1    1   19   17
 0.5939722617849637    1    1   19   19
 0.5939722617849647    1    1   20   20
 0.001945265302556423    1    1   21    6
 0.01525585546082273    1    1   21    7
 -4.549225579575378e-13    1    1   21    8
 -1.967068001540451e-13    1    1   21    9
 0.0004150838496279037    1    1   21   12
 0.03284934432047548    1    1   21   13
 2.227558415501818e-13    1    1   21   15
 -2.758591965967838e-13    1    1   21   16
 0.6390468737229866    1    1   21   21
 -0.0152558554608229    1    1   22    6
 0.001945265302556484    1    1   22    7
 -1.973835591501105e-13    1    1   22    8
 4.549319905164384e-13    1    1   22    9
 -0.03284934432047598    1    1   22   12
 0.0004150838496279298    1    1   22   13
 -2.762638208475554e-13    1    1   22   15
 -2.244831924513857e-13    1    1   22   16
 2.729523486827541e-15    1    1   22   19
 0.639046873722987    1    1   22   22
 6.340969416207543e-13    1    1   23   19
 3.751794881712289e-14    1    1   23   20
 0.5844481707285405    1    1   23   23
 -3.749604793323869e-14    1    1   24   19
 6.34048721729133e-13    1    1   24   20
 0.5844481707285403    1    1   24   24
 0.02411938550840028    1    1   25    1
 -4.798733025529467e-14    1    1   25    2
 -0.006911110663360256    1    1   25    3
 -3.476125637336125e-14    1    1   25    4
 -0.0127785435904024    1    1   25    5
 2.416348371392374e-13    1    1   25   10
 -0.04728082164636746    1    1   25   11
 0.01540383164360722    1    1   25   14
 -5.200978536734624e-13    1    1   25   17
 3.255590241835193e-13    1    1   25   18
 0.6255964229244364    1    1   25   25
 -1.27862781126864e-13    1    1   26    6
 1.227845949913764e-13    1    1   26    7
 -0.04149870297695538    1    1   26    8
 0.0240946238258278    1    1   26    9
 -2.094171190625271e-13    1    1   26   12
 1.595772125551065e-13    1    1   26   13
 -0.02508057968129926    1    1   26   15
 -0.0964714759111755    1    1   26   16
 -3.143874049982287e-13    1    1   26   21
 -4.255380769979666e-13    1    1   26   22
 0.601723298343233    1    1   26   26
 -1.22664031709796e-13    1    1   27    6
 -1.281561662347386e-13    1    1   27    7
 0.02409462382582761    1    1   27    8
 0.04149870297695542    1    1   27    9
 -1.594228221657445e-13    1    1   27   12
 -2.105954299835844e-13    1    1   27   13
 -0.09647147591117522    1    1   27   15
 0.02508057968129864    1    1   27   16
 4.249378626752787e-13    1    1   27   21
 -3.142590354610064e-13    1    1   27   22
 0.6017232983432335    1    1   27   27
 4.46097646940747e-13    1    1   28    1
 -0.06921202847268504    1    1   28    2
 -5.284991194676181e-13    1    1   28    3
 0.02949382684475984    1    1   28    4
 4.839557574132236e-13    1    1   28    5
 0.02319899634586152    1    1   28   10
 6.096668309085729e-13    1    1   28   11
 3.256162700582266e-14    1    1   28   14
 -0.2304855493455683    1    1   28   17
 0.1687163418292346    1    1   28   18
 -2.865763182313685e-15    1    1   28   19
 -2.988304048656687e-13    1    1   28   25
 0.8008284965510252    1    1   28   28
 -6.662945419873409e-12    2    1    1    1
 1.821079239011255    2    1    2    1
 6.656110775396518e-12    2    1    2    2
 3.80055165669687e-13    2    1    3    1
 -0.2078480045781747    2    1    3    2
 0.1763877247526643    2    1    4    1
 3.225653895193564e-13    2    1    4    2
 -0.1669548625432488    2    1    4    3
 1.012506728849741e-13    2    1    5    1
 -0.05529813810545538    2    1    5    2
 -0.2512142265072754    2    1    5    4
 -1.428870043118646e-15    2    1    5    5
 2.280303650995182e-15    2    1    6    4
 -1.443127301686831e-15    2    1    6    6
 -1.023847978366567e-15    2    1    7    4
 -1.391478359696415e-15    2    1    8    5
 -0.06504871977544868    2    1    8    6
 0.2251789849555531    2    1    8    7
 1.645982206288077e-15    2    1    9    5
 0.2251789849555527    2    1    9    6
 0.06504871977544953    2    1    9    7
 -0.1143684560565732    2    1   10    1
 -2.039667398737524e-13    2    1   10    2
 0.1248016008475497    2    1   10    3
 5.604105504306012e-15    2    1   10    4
 -0.001715455917643754    2    1   10    5
 -4.112161999803021e-15    2    1   10   10
 -3.749387359966308e-14    2    1   11    1
 0.02089893406045082    2    1   11    2
 -0.03110690162288085    2    1   11    4
 -1.030425744730223e-15    2    1   11    5
 0.04701646797764172    2    1   11   10
 -1.187309799088876e-15    2    1   11   11
 -1.754530494415402e-15    2    1   12    6
 -0.0535897419547223    2    1   12    8
 0.1283916265830917    2    1   12    9
 -3.380474611174022e-15    2    1   12   12
 -2.352583189021984e-15    2    1   13    7
 0.128391626583092    2    1   13    8
 0.0535897419547229    2    1   13    9
 -1.188854787184668e-15    2    1   13   12
 -5.800102152037079e-15    2    1   13   13
 2.715980332429875e-13    2    1   14    1
 -0.153642888588603    2    1   14    2
 7.500971415178026e-15    2    1   14    3
 -0.1810103399179551    2    1   14    4
 5.705451302379094e-15    2    1   14    5
 0.09781721936940863    2    1   14   10
 2.325071558895164e-15    2    1   14   11
 2.575088579870322e-14    2    1   14   14
 -0.1690424597039257    2    1   15    6
 -0.1043194539280432    2    1   15    7
 -1.077331041217378e-15    2    1   15    9
 -0.1854960324232794    2    1   15   12
 -0.1460871248770307    2    1   15   13
 4.969982758673552e-15    2    1   15   15
 -1.305500750940378e-15    2    1   16    5
 -0.104319453928044    2    1   16    6
 0.1690424597039253    2    1   16    7
 -0.1460871248770318    2    1   16   12
 0.1854960324232788    2    1   16   13
 -1.869815066668501e-15    2    1   16   15
 3.091927755494162e-15    2    1   16   16
 0.009835025550623776    2    1   17    1
 2.317253783605186e-14    2    1   17    2
 -0.1238749061849681    2    1   17    3
 5.449904850324261e-15    2    1   17    4
 0.2401807753001285    2    1   17    5
 -1.870536047289336e-15    2    1   17    6
 -9.030536735066264e-15    2    1   17   10
 0.1230877751585887    2    1   17   11
 0.162607793865424    2    1   17   14
 -1.0322038362931e-14    2    1   17   17
 -0.1697033093519849    2    1   18    1
 -3.043341674589112e-13    2    1   18    2
 0.1923229433591999    2    1   18    3
 7.366205085138078e-15    2    1   18    4
 -0.03477215766568163    2    1   18    5
 -1.043457854843499e-14    2    1   18   10
 -0.05093002961235307    2    1   18   11
 0.122764051226092    2    1   18   14
 -9.629016334278262e-15    2    1   18   17
 -4.588343593958655e-15    2    1   18   18
 2.609366309179809e-15    2    1   19    1
 -2.996951645184431e-15    2    1   19    3
 3.560150111496644e-15    2    1   19    8
 -7.243923403480615e-15    2    1   19    9
 -1.912098951395436e-15    2    1   19   14
 4.330938847211536e-15    2    1   19   15
 3.884008245465004e-15    2    1   19   16
 0.1244618131190836    2    1   21    8
 0.05380594545803603    2    1   21    9
 -0.06101653363962584    2    1   21   15
 0.07549425223343201    2    1   21   16
 -1.117161918529064e-15    2    1   21   21
 0.05380594545803603    2    1   22    8
 -0.124461813119084    2    1   22    9
 0.07549425223343273    2    1   22   15
 0.06101653363962694    2    1   22   16
 -1.056981084119758e-15    2    1   22   19
 1.110223024625154e-15    2    1   22   21
 2.496917603234061e-15    2    1   22   22
 -2.511879593214417e-15    2    1   23   18
 -0.1734121326403142    2    1   23   19
 -0.01024047266686172    2    1   23   20
 1.03507019957993e-14    2    1   23   22
 0.01024047266686173    2    1   24   19
 -0.1734121326403141    2    1   24   20
 -4.61225330118057e-14    2    1   25    1
 0.0250126557998811    2    1   25    2
 0.009031417783432149    2    1   25    4
 1.763346413330424e-15    2    1   25    5
 -0.06556630987695419    2    1   25   10
 2.013146593871085e-15    2    1   25   11
 0.142614790194021    2    1   25   17
 -0.09027229212739254    2    1   25   18
 1.450228825916611e-15    2    1   25   19
 -2.872702076217593e-15    2    1   25   25
 0.03506431986310771    2    1   26    6
 -0.0335636648233195    2    1   26    7
 1.47798440153224e-15    2    1   26    9
 0.05727222472404039    2    1   26   12
 -0.04347947024851097    2    1   26   13
 -1.005705935197554e-15    2    1   26   15
 -1.188285581044113e-15    2    1   26   16
 7.109355032144077e-15    2    1   26   19
 0.08595409770368431    2    1   26   21
 0.1162417381656983    2    1   26   22
 -2.803313137178521e-15    2    1   26   26
 0.03356366482331991    2    1   27    6
 0.0350643198631068    2    1   27    7
 0.04347947024851136    2    1   27   12
 0.05727222472403953    2    1   27   13
 4.90483804362658e-15    2    1   27   19
 -0.1162417381656988    2    1   27   21
 0.08595409770368419    2    1   27   22
 -1.193489751472043e-15    2    1   27   26
 -0.08734369113225272    2    1   28    1
 -1.594124680349973e-13    2    1   28    2
 0.1446517950609529    2    1   28    3
 -0.1323532821644609    2    1   28    5
 1.041521493253781e-15    2    1   28    6
 -0.1667656199276226    2    1   28   11
 -0.008927229252622241    2    1   28   14
 1.516148318003729e-15    2    1   28   17
 -3.764349942869671e-15    2    1   28   18
 0.08153626086555604    2    1   28   25
 2.539635168830046e-15    2    1   28   28
 2.302364212822039    2    2    1    1
 6.655500742267905e-12    2    2    2    1
 2.303166857924479    2    2    2    2
 -0.1977244105333979    2    2    3    1
 -1.122078938011611e-12    2    2    3    2
 0.8360453392376672    2    2    3    3
 3.084611186539733e-13    2    2    4    1
 0.1843000338269215    2    2    4    2
 -6.107345532080366e-13    2    2    4    3
 0.6636677318209034    2    2    4    4
 -0.07191325398863584    2    2    5    1
 -3.334212788676238e-13    2    2    5    2
 -0.0977425145324604    2    2    5    3
 -9.189047092683644e-13    2    2    5    4
 0.6918226655442835    2    2    5    5
 0.6841270403885267    2    2    6    6
 0.6841270403885251    2    2    7    7
 -2.379789074136163e-13    2    2    8    6
 8.228036307844633e-13    2    2    8    7
 0.6135440742662678    2    2    8    8
 8.233140731672695e-13    2    2    9    6
 2.376488762723117e-13    2    2    9    7
 1.018499520832883e-15    2    2    9    8
 0.6135440742662679    2    2    9    9
 -2.065778713995943e-13    2    2   10    1
 -0.1131919725197871    2    2   10    2
 4.53039515624365e-13    2    2   10    3
 -0.1345795924881731    2    2   10    4
 -1.213829384227871e-14    2    2   10    5
 0.4088885493749377    2    2   10   10
 0.01004044668240034    2    2   11    1
 9.577511310074338e-14    2    2   11    2
 -0.1010026791632391    2    2   11    3
 -1.127604953854444e-13    2    2   11    4
 0.1623377995790911    2    2   11    5
 -1.010427300139813e-15    2    2   11    6
 1.152135181439388e-15    2    2   11    7
 1.720602826882356e-13    2    2   11   10
 0.4821806464650099    2    2   11   11
 1.799009267794057e-15    2    2   12    5
 0.2332423745909331    2    2   12    6
 -0.0267502526836909    2    2   12    7
 -1.958137970346774e-13    2    2   12    8
 4.680531678381838e-13    2    2   12    9
 0.5778895080030159    2    2   12   12
 -1.377146239864514e-15    2    2   13    5
 0.02675025268369106    2    2   13    6
 0.2332423745909322    2    2   13    7
 4.66612642621711e-13    2    2   13    8
 1.941079675465973e-13    2    2   13    9
 0.5778895080030131    2    2   13   13
 -0.1598811050566392    2    2   14    1
 -8.640263255300235e-13    2    2   14    2
 0.1350682632707926    2    2   14    3
 -6.755000205027617e-13    2    2   14    4
 0.1576240174677824    2    2   14    5
 -1.234760289425874e-15    2    2   14    6
 1.085392646898157e-15    2    2   14    7
 3.577520224506969e-13    2    2   14   10
 -0.00834780528050514    2    2   14   11
 0.5641267591700698    2    2   14   14
 -6.193062284786527e-13    2    2   15    6
 -3.838003049053129e-13    2    2   15    7
 -0.07072943877369388    2    2   15    8
 -0.2538915731956365    2    2   15    9
 -6.78083620069686e-13    2    2   15   12
 -5.345006121731943e-13    2    2   15   13
 0.6248876280944667    2    2   15   15
 -3.814616537142074e-13    2    2   16    6
 6.201513911771595e-13    2    2   16    7
 0.2538915731956367    2    2   16    8
 -0.07072943877369368    2    2   16    9
 -5.33908095685931e-13    2    2   16   12
 6.784785407110139e-13    2    2   16   13
 1.207150698845361e-15    2    2   16   15
 0.6248876280944682    2    2   16   16
 5.605435007220022e-14    2    2   17    1
 -0.008195264172487286    2    2   17    2
 -4.579279663796676e-13    2    2   17    3
 -0.1176677744562604    2    2   17    4
 8.734532194742961e-13    2    2   17    5
 -0.08548875779053838    2    2   17   10
 4.502613559775881e-13    2    2   17   11
 5.914747858160041e-13    2    2   17   14
 0.7434967803685784    2    2   17   17
 -3.131304216570305e-13    2    2   18    1
 -0.1645254049811846    2    2   18    2
 6.961345562495058e-13    2    2   18    3
 -0.1353487263848152    2    2   18    4
 -1.323442223866156e-13    2    2   18    5
 0.1660028302287163    2    2   18   10
 -1.860317455637528e-13    2    2   18   11
 4.489785279671032e-13    2    2   18   14
 -0.1383126698138662    2    2   18   17
 0.5993884531672401    2    2   18   18
 2.57405858780646e-15    2    2   19    2
 2.132842513713484e-15    2    2   19    4
 -2.400857290751901e-15    2    2   19   10
 -1.989396296527715e-15    2    2   19   12
 2.05391259555654e-15    2    2   19   17
 0.5939619882025389    2    2   19   19
 0.5939619882025398    2    2   20   20
 0.001951208180380801    2    2   21    6
 0.01530246282332016    2    2   21    7
 4.552963908666108e-13    2    2   21    8
 1.967766227739531e-13    2    2   21    9
 0.0004154750793495185    2    2   21   12
 0.03288030587160604    2    2   21   13
 -2.23637081075978e-13    2    2   21   15
 2.764038997682405e-13    2    2   21   16
 0.6390351203756204    2    2   21   21
 -0.01530246282332029    2    2   22    6
 0.001951208180380842    2    2   22    7
 1.961433402850044e-13    2    2   22    8
 -4.553345547830823e-13    2    2   22    9
 -0.03288030587160651    2    2   22   12
 0.0004154750793495376    2    2   22   13
 2.759324886636438e-13    2    2   22   15
 2.218082488514295e-13    2    2   22   16
 2.729589418633601e-15    2    2   22   19
 0.6390351203756205    2    2   22   22
 -6.340483693634269e-13    2    2   23   19
 -3.738415826903818e-14    2    2   23   20
 0.5844516664874879    2    2   23   23
 3.738676035425215e-14    2    2   24   19
 -6.342035457993639e-13    2    2   24   20
 0.5844516664874877    2    2   24   24
 0.02412230761546167    2    2   25    1
 1.353176468446571e-13    2    2   25    2
 -0.006963045738129013    2    2   25    3
 3.141887791602294e-14    2    2   25    4
 -0.01274350106283513    2    2   25    5
 -2.394369424951748e-13    2    2   25   10
 -0.04725948892037348    2    2   25   11
 0.01539834653294362    2    2   25   14
 5.233105615509714e-13    2    2   25   17
 -3.32692207116736e-13    2    2   25   18
 0.6255856820715668    2    2   25   25
 1.285432264103159e-13    2    2   26    6
 -1.226328066872284e-13    2    2   26    7
 -0.04149228891131544    2    2   26    8
 0.02409089974561077    2    2   26    9
 2.094383694251079e-13    2    2   26   12
 -1.583767839097305e-13    2    2   26   13
 -0.02508139640758843    2    2   26   15
 -0.09647461741713506    2    2   26   16
 3.143180160591896e-13    2    2   26   21
 4.248094931380564e-13    2    2   26   22
 0.6017286811098893    2    2   26   26
 1.227854623531144e-13    2    2   27    6
 1.282411676850614e-13    2    2   27    7
 0.0240908997456106    2    2   27    8
 0.04149228891131555    2    2   27    9
 1.585723739816469e-13    2    2   27   12
 2.082396755032079e-13    2    2   27   13
 -0.09647461741713484    2    2   27   15
 0.025081396407588    2    2   27   16
 -4.254929741875912e-13    2    2   27   21
 3.145053661945951e-13    2    2   27   22
 0.6017286811098898    2    2   27   27
 -1.931391380377914e-13    2    2   28    1
 -0.06924459950534073    2    2   28    2
 5.296128119391952e-13    2    2   28    3
 0.02949835798961995    2    2   28    4
 -4.840988720999917e-13    2    2   28    5
 0.02319586936151033    2    2   28   10
 -6.100146429655062e-13    2    2   28   11
 -3.146961857769526e-14    2    2   28   14
 -0.230499549637585    2    2   28   17
 0.1687108453639334    2    2   28   18
 -2.491062911502695e-15    2    2   28   19
 2.969985368750372e-13    2    2   28   25
 0.8008540623252103    2    2   28   28
 -0.1976030307914653    3    1    1    1
 3.800746143931889e-13    3    1    2    1
 -0.197724410533398    3    1    2    2
 0.03584490851644927    3    1    3    1
 0.005935245154753822    3    1    3    3
 9.177319995644291e-14    3    1    4    1
 -0.02495713346150867    3    1    4    2
 -1.587380400736027e-14    3    1    4    3
 -0.01298680865390517    3    1    4    4
 0.002459843734185226    3    1    5    1
 -1.310310841491462e-15    3    1    5    2
 -0.008955956198229231    3    1    5    3
 -2.807078029222476e-14    3    1    5    4
 -0.008185729501046818    3    1    5    5
 4.316714814603789e-05    3    1    6    6
 4.316714814600121e-05    3    1    7    7
 -4.273094871649549e-15    3    1    8    6
 1.478854473775659e-14    3    1    8    7
 -0.004191969189125885    3    1    8    8
 1.479256645019016e-14    3    1    9    6
 4.27140419388683e-15    3    1    9    7
 -0.00419196918912588    3    1    9    9
 -7.056341708310365e-14    3    1   10    1
 0.01917192272687894    3    1   10    2
 8.445064173792302e-15    3    1   10    3
 0.003261274190941001    3    1   10    4
 4.076681483708433e-15    3    1   10    5
 -0.002648990655175958    3    1   10   10
 -0.00795459381250152    3    1   11    1
 -0.002673146440463182    3    1   11    3
 -4.547103253822737e-15    3    1   11    4
 -0.0005183630334159928    3    1   11    5
 5.245099059941749e-15    3    1   11   10
 0.0003116806607131975    3    1   11   11
 -0.002851566892278344    3    1   12    6
 0.000327042352602844    3    1   12    7
 -4.215962499357247e-15    3    1   12    8
 1.012213731682956e-14    3    1   12    9
 -0.003260952031071012    3    1   12   12
 -0.0003270423526028504    3    1   13    6
 -0.002851566892278348    3    1   13    7
 1.014660089889569e-14    3    1   13    8
 4.251254974137544e-15    3    1   13    9
 -0.003260952031070994    3    1   13   13
 0.02113121775785314    3    1   14    1
 -0.00380730487698144    3    1   14    3
 -2.285408817623508e-14    3    1   14    4
 -0.01069877821797312    3    1   14    5
 1.062058698365204e-14    3    1   14   10
 -0.005274930715824828    3    1   14   11
 -0.009213949634767328    3    1   14   14
 -1.25837315285808e-14    3    1   15    6
 -7.741433904508155e-15    3    1   15    7
 0.001471574442361914    3    1   15    8
 0.005282388164300218    3    1   15    9
 -1.476584764290197e-14    3    1   15   12
 -1.163527824435406e-14    3    1   15   13
 -0.00768229398739091    3    1   15   15
 -7.769721416814659e-15    3    1   16    6
 1.257406180045495e-14    3    1   16    7
 -0.005282388164300219    3    1   16    8
 0.00147157444236191    3    1   16    9
 -1.161821222453278e-14    3    1   16   12
 1.476379782316961e-14    3    1   16   13
 -0.007682293987390927    3    1   16   16
 3.626629056030582e-14    3    1   17    1
 -0.01048444739171701    3    1   17    2
 0.01035033207753993    3    1   17    4
 2.435515083744821e-14    3    1   17    5
 -0.002999058977618459    3    1   17   10
 1.106021910613365e-14    3    1   17   11
 2.10273184769131e-14    3    1   17   14
 -0.01093872078658469    3    1   17   17
 -1.080259481873173e-13    3    1   18    1
 0.0294016345002225    3    1   18    2
 1.081999209196285e-14    3    1   18    3
 0.003980119740622687    3    1   18    4
 3.917127581500035e-15    3    1   18    5
 -0.001805395367085812    3    1   18   10
 1.107877082174441e-14    3    1   18   14
 -0.002177089399044469    3    1   18   17
 -0.001715011081634045    3    1   18   18
 0.003064730240267177    3    1   19   19
 0.003064730240267216    3    1   20   20
 -0.001149603115636897    3    1   21    6
 -0.009015828815955697    3    1   21    7
 1.349902855512022e-14    3    1   21    8
 5.844737400225591e-15    3    1   21    9
 -7.735653080659149e-05    3    1   21   12
 -0.006121922879391256    3    1   21   13
 -7.941374337641638e-15    3    1   21   15
 9.846778340621976e-15    3    1   21   16
 -0.0001372186448677444    3    1   21   21
 0.009015828815955708    3    1   22    6
 -0.001149603115636893    3    1   22    7
 5.796201565314973e-15    3    1   22    8
 -1.344138626899367e-14    3    1   22    9
 0.00612192287939128    3    1   22   12
 -7.735653080659106e-05    3    1   22   13
 9.854394860883686e-15    3    1   22   15
 7.980090519594737e-15    3    1   22   16
 -0.00013721864486777    3    1   22   22
 -7.77751073179761e-15    3    1   23   19
 0.0008646238044336986    3    1   23   23
 -7.775214200484477e-15    3    1   24   20
 0.0008646238044336849    3    1   24   24
 -0.006185801705002898    3    1   25    1
 0.006118544702714102    3    1   25    3
 -4.557897841702546e-15    3    1   25    4
 -0.008152526259754626    3    1   25    5
 -4.232616861166161e-15    3    1   25   10
 -0.003777474247731515    3    1   25   11
 -0.001950349242574829    3    1   25   14
 1.638148167462661e-14    3    1   25   17
 -7.247078371436233e-15    3    1   25   18
 -0.000616131154841362    3    1   25   25
 -1.776040049077977e-15    3    1   26    6
 1.608125931680179e-15    3    1   26    7
 -0.003061837311995419    3    1   26    8
 0.001777737928083673    3    1   26    9
 1.241818063310585e-15    3    1   26   12
 -0.0003722393283977627    3    1   26   15
 -0.001431804123311161    3    1   26   16
 5.033462795872579e-15    3    1   26   21
 6.814901832956355e-15    3    1   26   22
 -0.0007518596852417988    3    1   26   26
 -1.603097944105278e-15    3    1   27    6
 -1.642396884726088e-15    3    1   27    7
 0.001777737928083697    3    1   27    8
 0.003061837311995423    3    1   27    9
 1.322902833285344e-15    3    1   27   13
 -0.001431804123311162    3    1   27   15
 0.0003722393283977733    3    1   27   16
 -6.811933829509176e-15    3    1   27   21
 5.044426790341838e-15    3    1   27   22
 -0.0007518596852418152    3    1   27   27
 -8.567152474666751e-14    3    1   28    1
 0.02382603980428363    3    1   28    2
 5.790195254685992e-15    3    1   28    3
 -0.0003454677620030396    3    1   28    4
 -6.088987820895841e-15    3    1   28    5
 0.0007058405793085951    3    1   28   10
 -1.032295993477761e-14    3    1   28   11
 -3.433532754990032e-15    3    1   28   14
 0.003221750652399308    3    1   28   17
 0.001042169128377869    3    1   28   18
 -0.005940588159713538    3    1   28   28
 3.983318052132475e-13    3    2    1    1
 -0.2078480045781746    3    2    2    1
 -1.122005981369798e-12    3    2    2    2
 0.03544888168686162    3    2    3    2
 1.058061211073932e-14    3    2    3    3
 -0.02528412047956668    3    2    4    1
 -9.194649834464905e-14    3    2    4    2
 0.008708034050763735    3    2    4    3
 -2.395624321203764e-14    3    2    4    4
 -1.293784169899346e-15    3    2    5    1
 0.003180453395982963    3    2    5    2
 -1.633337697948614e-14    3    2    5    3
 0.01535887507959311    3    2    5    4
 -1.50712775592865e-14    3    2    5    5
 0.002335991875651939    3    2    8    6
 -0.008086497032371383    3    2    8    7
 -7.792083086622173e-15    3    2    8    8
 -0.008086497032371364    3    2    9    6
 -0.00233599187565197    3    2    9    7
 -7.831852977561657e-15    3    2    9    9
 0.01912296893384034    3    2   10    1
 6.943243629849616e-14    3    2   10    2
 -0.00454737867564889    3    2   10    3
 5.513486531476958e-15    3    2   10    4
 -0.002043633562125513    3    2   10    5
 -3.809506963353693e-15    3    2   10   10
 -0.007470572393866507    3    2   11    2
 -4.831377675316648e-15    3    2   11    3
 0.002456802625614101    3    2   11    4
 -0.00278511192376176    3    2   11   10
 -5.197852832693325e-15    3    2   12    6
 0.002305323430176671    3    2   12    8
 -0.005523150778568241    3    2   12    9
 -5.970553556628377e-15    3    2   12   12
 -5.167111042422151e-15    3    2   13    7
 -0.005523150778568253    3    2   13    8
 -0.002305323430176699    3    2   13    9
 -5.862592854753712e-15    3    2   13   13
 0.02141137198862189    3    2   14    2
 -7.379960900201488e-15    3    2   14    3
 0.01283488867581264    3    2   14    4
 -2.011629388455963e-14    3    2   14    5
 -0.00578197344901187    3    2   14   10
 -9.814618193680624e-15    3    2   14   11
 -1.859238674475905e-14    3    2   14   14
 0.00688395133506605    3    2   15    6
 0.004248222874886609    3    2   15    7
 2.738870870551413e-15    3    2   15    8
 9.758210881591171e-15    3    2   15    9
 0.008058653129112317    3    2   15   12
 0.006346580304892603    3    2   15   13
 -1.440708175589472e-14    3    2   15   15
 0.004248222874886635    3    2   16    6
 -0.00688395133506604    3    2   16    7
 -9.732796505041753e-15    3    2   16    8
 2.707148639643792e-15    3    2   16    9
 0.00634658030489265    3    2   16   12
 -0.008058653129112284    3    2   16   13
 -1.432044722604955e-14    3    2   16   16
 -0.009737480591761251    3    2   17    1
 -3.768671081450089e-14    3    2   17    2
 0.0002366480858609349    3    2   17    3
 1.856141244394385e-14    3    2   17    4
 -0.01311723546123178    3    2   17    5
 -4.946347151313368e-15    3    2   17   10