&FCI NORB=   2,NELEC=   3,MS2=   1,
 ORBSYM=1,1,,
 ISYM=1,
&END
 9.3843818647174371E-01   1   1   1   1
-1.7181645793946893E-01   1   1   1   2
 6.7889142763141275E-01   1   1   2   2
 1.5284132948207071E-01   1   2   1   2
 2.9235754068818551E-02   1   2   2   2
 7.5347343341311634E-01   2   2   2   2
 9.5097462192418503E-01   1   1   3   3
-1.6158571043232664E-01   1   1   3   4
 6.6635499217897043E-01   1   1   4   4
-1.8301050723225121E-01   1   2   3   3
 1.4486054289085748E-01   1   2   3   4
 4.0429803361600763E-02   1   2   4   4
 6.7680121379970593E-01   2   2   3   3
 2.6352760425216892E-02   2   2   3   4
 7.5556364724482195E-01   2   2   4   4
 9.6433104476587928E-01   3   3   3   3
-1.7219894237602218E-01   3   3   3   4
 6.6344479095801123E-01   3   3   4   4
 1.3739469280866959E-01   3   4   3   4
 3.6965992368912272E-02   3   4   4   4
 7.5847384846578025E-01   4   4   4   4
-2.6053045895340987E+00   1   1   0   0
 1.8301050723224974E-01   1   2   0   0
-1.3466434111981145E+00   2   2   0   0
-2.6172710340816154E+00   3   3   0   0
 1.3523295000711089E-01   3   4   0   0
-1.3346769666505960E+00   4   4   0   0
 1.4399379888979593E+00   0   0   0   0
